User input:
--------------------------------------------------------------
$molecule
-3 1
Nb    0.00000   -4.49988   -3.13807
F   -1.35308   -5.64777   -3.92622
F   -1.39581   -3.82240   -1.95846
F    0.00000   -6.06395   -1.60237
O    0.00000   -3.27455   -4.30092
F    1.35308   -5.64777   -3.92622
F    1.39581   -3.82240   -1.95846
Nb    0.00000   -8.08590   -0.66934
F   -1.35512   -8.34548   -2.03759
F    1.35512   -8.34548   -2.03759
F   -1.34291   -7.25213    0.41310
F    1.34291   -7.25213    0.41310
O    0.00000   -9.63868    0.00698
$end

$rem
JOBTYPE OPT
GEOM_OPT_MAX_CYCLES 200
ECP LANL2DZ
BASIS LANL2DZ
EXCHANGE M06
$end
--------------------------------------------------------------

   17   -1161.6322182736      7.45E-10 Convergence criterion met
 Total energy in the final basis set = -1161.6322182736
   13   -1161.6534094057      4.90E-09 Convergence criterion met
 Total energy in the final basis set = -1161.6534094057
   13   -1161.6558916479      1.06E-09 Convergence criterion met
 Total energy in the final basis set = -1161.6558916479
   13   -1161.6593674222      3.23E-09 Convergence criterion met
 Total energy in the final basis set = -1161.6593674222
   12   -1161.6600407681      4.25E-09 Convergence criterion met
 Total energy in the final basis set = -1161.6600407681
   12   -1161.6607745985      8.21E-09 Convergence criterion met
 Total energy in the final basis set = -1161.6607745985
   13   -1161.6614825731      1.57E-09 Convergence criterion met
 Total energy in the final basis set = -1161.6614825731
   13   -1161.6622036519      2.21E-09 Convergence criterion met
   11   -1161.6679732338      4.03E-09 Convergence criterion met
 Total energy in the final basis set = -1161.6679732338
   10   -1161.6679795447      8.35E-09 Convergence criterion met
 Total energy in the final basis set = -1161.6679795447
   11   -1161.6679878454      4.57E-09 Convergence criterion met
 Total energy in the final basis set = -1161.6679878454
   11   -1161.6679972928      8.49E-09 Convergence criterion met
 Total energy in the final basis set = -1161.6679972928
   11   -1161.6680041888      5.04E-09 Convergence criterion met
 Total energy in the final basis set = -1161.6680041888
   11   -1161.6680069936      4.21E-09 Convergence criterion met
 Total energy in the final basis set = -1161.6680069936

       Standard Nuclear Orientation (Angstroms)
    I     Atom         X            Y            Z
 ----------------------------------------------------
    1      Nb      2.245199     0.017006     0.000000
    2      F       2.058979    -1.364913    -1.391532
    3      F       2.068642     1.409222    -1.383845
    4      F       0.002061     0.009631     0.000000
    5      O       4.018507     0.004571     0.000000
    6      F       2.058979    -1.364913     1.391532
    7      F       2.068642     1.409222     1.383845
    8      Nb     -2.241276    -0.019793     0.000000
    9      F      -2.052008    -1.409509    -1.383977
   10      F      -2.052008    -1.409509     1.383977
   11      F      -2.067308     1.365411    -1.390603
   12      F      -2.067308     1.365411     1.390603
   13      O      -4.014642    -0.025502     0.000000
 ----------------------------------------------------

   10   -1161.6680077068      5.16E-09 Convergence criterion met
 Total energy in the final basis set = -1161.6680077068
 Final energy is   -1161.66800770676
 **  OPTIMIZATION CONVERGED  **

             Orbital Energies (a.u.) and Symmetries
 --------------------------------------------------------------

 Alpha MOs, Restricted
 -- Occupied --
-24.325 -24.325 -24.325 -24.325 -24.325 -24.325 -24.325 -24.325
  1 A'    1 A"    2 A'    2 A"    3 A'    3 A"    4 A'    4 A"
-24.296 -18.823 -18.823  -1.941  -1.941  -1.061  -1.060  -1.060
  5 A'    6 A'    7 A'    8 A'    9 A'   10 A'   11 A'    5 A"
 -1.060  -1.060  -1.060  -0.744  -0.744  -0.743  -0.743  -0.717
  6 A"   12 A'   13 A'   14 A'   15 A'    7 A"    8 A"   16 A'
 -0.717  -0.717  -0.717  -0.706  -0.513  -0.511  -0.063  -0.063
  9 A"   17 A'   10 A"   18 A'   19 A'   20 A'   11 A"   12 A"
 -0.055  -0.044  -0.037  -0.037  -0.030  -0.030  -0.027  -0.019
 21 A'   22 A'   23 A'   24 A'   25 A'   13 A"   26 A'   14 A"
 -0.019   0.012   0.012   0.012   0.012   0.012   0.021   0.024
 27 A'   15 A"   28 A'   29 A'   16 A"   30 A'   31 A'   17 A"
  0.024   0.025   0.025   0.028   0.028   0.041   0.041   0.044
 32 A'   18 A"   33 A'   19 A"   20 A"   21 A"   22 A"   34 A'
  0.056   0.056   0.072   0.077   0.077   0.078   0.078
 23 A"   35 A'   36 A'   37 A'   24 A"   38 A'   25 A"

 Beta MOs, Restricted
 -- Occupied --
-24.325 -24.325 -24.325 -24.325 -24.325 -24.325 -24.325 -24.325
  1 A'    1 A"    2 A'    2 A"    3 A'    3 A"    4 A'    4 A"
-24.296 -18.823 -18.823  -1.941  -1.941  -1.061  -1.060  -1.060
  5 A'    6 A'    7 A'    8 A'    9 A'   10 A'   11 A'    5 A"
 -1.060  -1.060  -1.060  -0.744  -0.744  -0.743  -0.743  -0.717
  6 A"   12 A'   13 A'   14 A'   15 A'    7 A"    8 A"   16 A'
 -0.717  -0.717  -0.717  -0.706  -0.513  -0.511  -0.063  -0.063
  9 A"   17 A'   10 A"   18 A'   19 A'   20 A'   11 A"   12 A"
 -0.055  -0.044  -0.037  -0.037  -0.030  -0.030  -0.027  -0.019
 21 A'   22 A'   23 A'   24 A'   25 A'   13 A"   26 A'   14 A"
 -0.019   0.012   0.012   0.012   0.012   0.012   0.021   0.024
 27 A'   15 A"   28 A'   29 A'   16 A"   30 A'   31 A'   17 A"
  0.024   0.025   0.025   0.028   0.028   0.041   0.041   0.044
 32 A'   18 A"   33 A'   19 A"   20 A"   21 A"   22 A"   34 A'
  0.056   0.056   0.072   0.077   0.077   0.078   0.078
 23 A"   35 A'   36 A'   37 A'   24 A"   38 A'   25 A"

          Ground-State Mulliken Net Atomic Charges

     Atom                 Charge (a.u.)
  ----------------------------------------
      1 Nb                    1.403071
      2 F                    -0.503331
      3 F                    -0.504339
      4 F                    -0.482080
      5 O                    -0.646744
      6 F                    -0.503331
      7 F                    -0.504339
      8 Nb                    1.403085
      9 F                    -0.503878
     10 F                    -0.503878
     11 F                    -0.503741
     12 F                    -0.503741
     13 O                    -0.646753
  ----------------------------------------
  Sum of atomic charges =    -3.000000

                    Cartesian Multipole Moments
 -----------------------------------------------------------------
    Charge (ESU x 10^10)
               -14.4096
    Dipole Moment (Debye)
         X      -0.0324      Y       0.0137      Z       0.0000
       Tot       0.0352
    Quadrupole Moments (Debye-Ang)
        XX    -224.3207     XY      -0.7268     YY    -136.3313
        XZ       0.0000     YZ       0.0000     ZZ    -136.3359
    Octapole Moments (Debye-Ang^2)
       XXX      -1.3739    XXY       0.4535    XYY      -0.2607
       YYY       0.3479    XXZ       0.0000    XYZ       0.0000
       YYZ       0.0000    XZZ      -0.3019    YZZ       0.1230
       ZZZ       0.0000
    Hexadecapole Moments (Debye-Ang^3)
      XXXX   -5476.5682   XXXY     -20.0811   XXYY    -864.9803
      XYYY     -17.9378   YYYY    -684.6808   XXXZ       0.0000
      XXYZ       0.0000   XYYZ       0.0000   YYYZ       0.0000
      XXZZ    -864.9721   XYZZ      -5.3639   YYZZ    -279.6207

 Total job time:  696.23s(wall), 4380.42s(cpu)
        *  Thank you very much for using Q-Chem.  Have a nice day.  *
